+ 20.6 1 0 tcp 64 CP-AEFN 0 1.0 0.0 0 -1717986918
- 20.6 1 0 tcp 64 CP-AEFN 0 1.0 0.0 0 -1717986918
+ 20.6 1 0 tcp 64 CP-AEFN 0 1.0 0.0 0 -1717986918
+ 20.6 1 0 tcp 64 CP-AEFN 0 33.0 0.0 0 -1717986918
+ 20.6 1 0 tcp 64 CP-AEFN 0 0.0 0.0 0 -1717986918
+ 20.6 1 0 tcp 64 ------- 0 1.0 0.0 0 -1717986918
+ 20.6 1 0 tcp 64 ------- 0 1.0 0.0 0 -1717986918
+ 20.6 1 0 tcp 64 CP--EFN 0 1.0 0.0 0 -1717986918
+ 20.6 1 0 tcp 64 ------- 0 1.0 0.0 0 -1717986918
+ 20.6 1 0 tcp 64 CP-AEFN 0 1.0 0.0 0 -1717986918
+ 20.6 1 0 tcp 64 CP-AEFN 0 1.0 0.0 0 -1717986918
+ 20.6 1 0 tcp 64 CP-AEFN 0 1.0 0.0 0 -1717986918
+ 20.6 1 0 tcp 64 ------- 0 1.0 0.0 0 -1717986918
+ 20.6 1 0 tcp 64 CP-AEFN 0 1.0 0.0 0 -1717986918
+ 20.6 1 0 tcp 64 CP-AEFN 0 8549.0 0.0 0 -1717986918
+ 20.6 1 0 tcp 64 CP-AEFN 0 33.0 0.0 0 -1717986918
+ 20.6 1 0 tcp 64 ------- 0 1.0 0.0 0 -1717986918
+ 20.6 1 0 tcp 64 CP-AEFN 0 1.0 0.0 0 -1717986918
+ 20.6 1 0 tcp 64 CP-AEFN 0 1.0 0.0 0 -1717986918
+ 20.6 1 0 tcp 64 CP-AEFN 0 0.0 0.0 0 -1717986918
+ 20.6 1 0 tcp 64 CP-AEFN 0 8545.0 0.0 0 -1717986918
+ 20.6 1 0 tcp 64 CP-AEFN 0 1.0 0.0 0 -1717986918
+ 20.6 1 0 tcp 64 CP-AEFN 0 1.0 0.0 0 -1717986918
+ 20.6 1 0 tcp 64 CP-AEFN 0 33.0 0.0 0 -1717986918
+ 20.6 1 0 tcp 64 CP-AEFN 0 33.0 0.0 0 -1717986918
+ 20.6 1 0 tcp 64 CP-AEFN 0 1.0 0.0 0 -1717986918
+ 20.6 1 0 tcp 64 CP-AEFN 0 1.0 0.0 0 -1717986918
+ 20.6 1 0 tcp 64 C---E-- 0 1.0 0.0 0 -1717986918
- 20.600512 1 0 tcp 64 CP-AEFN 0 1.0 0.0 0 -1717986918
- 20.601024 1 0 tcp 64 CP-AEFN 0 33.0 0.0 0 -1717986918
- 20.601536 1 0 tcp 64 CP-AEFN 0 0.0 0.0 0 -1717986918
- 20.602048 1 0 tcp 64 ------- 0 1.0 0.0 0 -1717986918
- 20.60256 1 0 tcp 64 ------- 0 1.0 0.0 0 -1717986918
- 20.603072 1 0 tcp 64 CP--EFN 0 1.0 0.0 0 -1717986918
- 20.603584 1 0 tcp 64 ------- 0 1.0 0.0 0 -1717986918
- 20.604096 1 0 tcp 64 CP-AEFN 0 1.0 0.0 0 -1717986918
- 20.604608 1 0 tcp 64 CP-AEFN 0 1.0 0.0 0 -1717986918
- 20.60512 1 0 tcp 64 CP-AEFN 0 1.0 0.0 0 -1717986918
- 20.605632 1 0 tcp 64 ------- 0 1.0 0.0 0 -1717986918
- 20.606144 1 0 tcp 64 CP-AEFN 0 1.0 0.0 0 -1717986918
- 20.606656 1 0 tcp 64 CP-AEFN 0 8549.0 0.0 0 -1717986918
- 20.607168 1 0 tcp 64 CP-AEFN 0 33.0 0.0 0 -1717986918
- 20.60768 1 0 tcp 64 ------- 0 1.0 0.0 0 -1717986918
- 20.608192 1 0 tcp 64 CP-AEFN 0 1.0 0.0 0 -1717986918
- 20.608704 1 0 tcp 64 CP-AEFN 0 1.0 0.0 0 -1717986918
- 20.609216 1 0 tcp 64 CP-AEFN 0 0.0 0.0 0 -1717986918
- 20.609728 1 0 tcp 64 CP-AEFN 0 8545.0 0.0 0 -1717986918
- 20.61024 1 0 tcp 64 CP-AEFN 0 1.0 0.0 0 -1717986918
r 20.610512 1 0 tcp 64 CP-AEFN 0 1.0 0.0 0 -1717986918
+ 20.610512 0 1 udp 64 ------- 0 0.0 1.0 0 -1717986918
- 20.610512 0 1 udp 64 ------- 0 0.0 1.0 0 -1717986918
- 20.610752 1 0 tcp 64 CP-AEFN 0 1.0 0.0 0 -1717986918
r 20.611024 1 0 tcp 64 CP-AEFN 0 1.0 0.0 0 -1717986918
+ 20.611024 0 1 udp 64 ------- 0 0.0 1.0 0 -1717986918
- 20.611024 0 1 udp 64 ------- 0 0.0 1.0 0 -1717986918
- 20.611264 1 0 tcp 64 CP-AEFN 0 33.0 0.0 0 -1717986918
r 20.611536 1 0 tcp 64 CP-AEFN 0 33.0 0.0 0 -1717986918
+ 20.611536 0 1 udp 64 ------- 0 0.0 1.0 0 -1717986918
- 20.611536 0 1 udp 64 ------- 0 0.0 1.0 0 -1717986918
- 20.611776 1 0 tcp 64 CP-AEFN 0 33.0 0.0 0 -1717986918
r 20.612048 1 0 tcp 64 CP-AEFN 0 0.0 0.0 0 -1717986918
+ 20.612048 0 1 udp 64 ------- 0 0.0 1.0 0 -1717986918
- 20.612048 0 1 udp 64 ------- 0 0.0 1.0 0 -1717986918
- 20.612288 1 0 tcp 64 CP-AEFN 0 1.0 0.0 0 -1717986918
r 20.61256 1 0 tcp 64 ------- 0 1.0 0.0 0 -1717986918
+ 20.61256 0 1 udp 64 ------- 0 0.0 1.0 0 -1717986918
- 20.61256 0 1 udp 64 ------- 0 0.0 1.0 0 -1717986918
- 20.6128 1 0 tcp 64 CP-AEFN 0 1.0 0.0 0 -1717986918
r 20.613072 1 0 tcp 64 ------- 0 1.0 0.0 0 -1717986918
+ 20.613072 0 1 udp 64 ------- 0 0.0 1.0 0 -1717986918
- 20.613072 0 1 udp 64 ------- 0 0.0 1.0 0 -1717986918
- 20.613312 1 0 tcp 64 C---E-- 0 1.0 0.0 0 -1717986918
r 20.613584 1 0 tcp 64 CP--EFN 0 1.0 0.0 0 -1717986918
+ 20.613584 0 1 udp 64 ------- 0 0.0 1.0 0 -1717986918
- 20.613584 0 1 udp 64 ------- 0 0.0 1.0 0 -1717986918
r 20.614096 1 0 tcp 64 ------- 0 1.0 0.0 0 -1717986918
+ 20.614096 0 1 udp 64 ------- 0 0.0 1.0 0 -1717986918
- 20.614096 0 1 udp 64 ------- 0 0.0 1.0 0 -1717986918
r 20.614608 1 0 tcp 64 CP-AEFN 0 1.0 0.0 0 -1717986918
+ 20.614608 0 1 udp 64 ------- 0 0.0 1.0 0 -1717986918
- 20.614608 0 1 udp 64 ------- 0 0.0 1.0 0 -1717986918
r 20.61512 1 0 tcp 64 CP-AEFN 0 1.0 0.0 0 -1717986918
+ 20.61512 0 1 udp 64 ------- 0 0.0 1.0 0 -1717986918
- 20.61512 0 1 udp 64 ------- 0 0.0 1.0 0 -1717986918
r 20.615632 1 0 tcp 64 CP-AEFN 0 1.0 0.0 0 -1717986918
+ 20.615632 0 1 udp 64 ------- 0 0.0 1.0 0 -1717986918
- 20.615632 0 1 udp 64 ------- 0 0.0 1.0 0 -1717986918
r 20.616144 1 0 tcp 64 ------- 0 1.0 0.0 0 -1717986918
+ 20.616144 0 1 udp 64 ------- 0 0.0 1.0 0 -1717986918
- 20.616144 0 1 udp 64 ------- 0 0.0 1.0 0 -1717986918
r 20.616656 1 0 tcp 64 CP-AEFN 0 1.0 0.0 0 -1717986918
+ 20.616656 0 1 udp 64 ------- 0 0.0 1.0 0 -1717986918
- 20.616656 0 1 udp 64 ------- 0 0.0 1.0 0 -1717986918
r 20.617168 1 0 tcp 64 CP-AEFN 0 8549.0 0.0 0 -1717986918
+ 20.617168 0 1 udp 64 ------- 0 0.0 1.0 0 -1717986918
- 20.617168 0 1 udp 64 ------- 0 0.0 1.0 0 -1717986918
r 20.61768 1 0 tcp 64 CP-AEFN 0 33.0 0.0 0 -1717986918
+ 20.61768 0 1 udp 64 ------- 0 0.0 1.0 0 -1717986918
- 20.61768 0 1 udp 64 ------- 0 0.0 1.0 0 -1717986918
r 20.618192 1 0 tcp 64 ------- 0 1.0 0.0 0 -1717986918
+ 20.618192 0 1 udp 64 ------- 0 0.0 1.0 0 -1717986918
- 20.618192 0 1 udp 64 ------- 0 0.0 1.0 0 -1717986918
r 20.618704 1 0 tcp 64 CP-AEFN 0 1.0 0.0 0 -1717986918
+ 20.618704 0 1 udp 64 ------- 0 0.0 1.0 0 -1717986918
- 20.618704 0 1 udp 64 ------- 0 0.0 1.0 0 -1717986918
r 20.619216 1 0 tcp 64 CP-AEFN 0 1.0 0.0 0 -1717986918
+ 20.619216 0 1 udp 64 ------- 0 0.0 1.0 0 -1717986918
- 20.619216 0 1 udp 64 ------- 0 0.0 1.0 0 -1717986918
r 20.619728 1 0 tcp 64 CP-AEFN 0 0.0 0.0 0 -1717986918
+ 20.619728 0 1 udp 64 ------- 0 0.0 1.0 0 -1717986918
- 20.619728 0 1 udp 64 ------- 0 0.0 1.0 0 -1717986918
r 20.62024 1 0 tcp 64 CP-AEFN 0 8545.0 0.0 0 -1717986918
+ 20.62024 0 1 udp 64 ------- 0 0.0 1.0 0 -1717986918
- 20.62024 0 1 udp 64 ------- 0 0.0 1.0 0 -1717986918
r 20.620752 1 0 tcp 64 CP-AEFN 0 1.0 0.0 0 -1717986918
+ 20.620752 0 1 udp 64 ------- 0 0.0 1.0 0 -1717986918
- 20.620752 0 1 udp 64 ------- 0 0.0 1.0 0 -1717986918
r 20.621024 0 1 udp 64 ------- 0 0.0 1.0 0 -1717986918
r 20.621264 1 0 tcp 64 CP-AEFN 0 1.0 0.0 0 -1717986918
+ 20.621264 0 1 udp 64 ------- 0 0.0 1.0 0 -1717986918
- 20.621264 0 1 udp 64 ------- 0 0.0 1.0 0 -1717986918
r 20.621536 0 1 udp 64 ------- 0 0.0 1.0 0 -1717986918
r 20.621776 1 0 tcp 64 CP-AEFN 0 33.0 0.0 0 -1717986918
+ 20.621776 0 1 udp 64 ------- 0 0.0 1.0 0 -1717986918
- 20.621776 0 1 udp 64 ------- 0 0.0 1.0 0 -1717986918
r 20.622048 0 1 udp 64 ------- 0 0.0 1.0 0 -1717986918
r 20.622288 1 0 tcp 64 CP-AEFN 0 33.0 0.0 0 -1717986918
+ 20.622288 0 1 udp 64 ------- 0 0.0 1.0 0 -1717986918
- 20.622288 0 1 udp 64 ------- 0 0.0 1.0 0 -1717986918
r 20.62256 0 1 udp 64 ------- 0 0.0 1.0 0 -1717986918
r 20.6228 1 0 tcp 64 CP-AEFN 0 1.0 0.0 0 -1717986918
+ 20.6228 0 1 udp 64 ------- 0 0.0 1.0 0 -1717986918
- 20.6228 0 1 udp 64 ------- 0 0.0 1.0 0 -1717986918
r 20.623072 0 1 udp 64 ------- 0 0.0 1.0 0 -1717986918
r 20.623312 1 0 tcp 64 CP-AEFN 0 1.0 0.0 0 -1717986918
+ 20.623312 0 1 udp 64 ------- 0 0.0 1.0 0 -1717986918
- 20.623312 0 1 udp 64 ------- 0 0.0 1.0 0 -1717986918
r 20.623584 0 1 udp 64 ------- 0 0.0 1.0 0 -1717986918
r 20.623824 1 0 tcp 64 C---E-- 0 1.0 0.0 0 -1717986918
+ 20.623824 0 1 udp 64 ------- 0 0.0 1.0 0 -1717986918
- 20.623824 0 1 udp 64 ------- 0 0.0 1.0 0 -1717986918
r 20.624096 0 1 udp 64 ------- 0 0.0 1.0 0 -1717986918
r 20.624608 0 1 udp 64 ------- 0 0.0 1.0 0 -1717986918
r 20.62512 0 1 udp 64 ------- 0 0.0 1.0 0 -1717986918
r 20.625632 0 1 udp 64 ------- 0 0.0 1.0 0 -1717986918
r 20.626144 0 1 udp 64 ------- 0 0.0 1.0 0 -1717986918
r 20.626656 0 1 udp 64 ------- 0 0.0 1.0 0 -1717986918
r 20.627168 0 1 udp 64 ------- 0 0.0 1.0 0 -1717986918
r 20.62768 0 1 udp 64 ------- 0 0.0 1.0 0 -1717986918
r 20.628192 0 1 udp 64 ------- 0 0.0 1.0 0 -1717986918
r 20.628704 0 1 udp 64 ------- 0 0.0 1.0 0 -1717986918
r 20.629216 0 1 udp 64 ------- 0 0.0 1.0 0 -1717986918
r 20.629728 0 1 udp 64 ------- 0 0.0 1.0 0 -1717986918
r 20.63024 0 1 udp 64 ------- 0 0.0 1.0 0 -1717986918
r 20.630752 0 1 udp 64 ------- 0 0.0 1.0 0 -1717986918
r 20.631264 0 1 udp 64 ------- 0 0.0 1.0 0 -1717986918
r 20.631776 0 1 udp 64 ------- 0 0.0 1.0 0 -1717986918
r 20.632288 0 1 udp 64 ------- 0 0.0 1.0 0 -1717986918
r 20.6328 0 1 udp 64 ------- 0 0.0 1.0 0 -1717986918
r 20.633312 0 1 udp 64 ------- 0 0.0 1.0 0 -1717986918
r 20.633824 0 1 udp 64 ------- 0 0.0 1.0 0 -1717986918
r 20.634336 0 1 udp 64 ------- 0 0.0 1.0 0 -1717986918
